<?xml version="1.0" encoding="UTF-8"?>

<!-- generated on Mon Nov 28 16:39:05 2016 by SUMO Version 0.28.0
<?xml version="1.0" encoding="UTF-8"?>

<configuration xmlns:xsi="http://www.w3.org/2001/XMLSchema-instance" xsi:noNamespaceSchemaLocation="http://sumo.dlr.de/xsd/sumoConfiguration.xsd">

    <input>
        <net-file value="TAPASCologne-0.24.0/cologne2.net.xml"/>
        <route-files value="TAPASCologne-0.24.0/cologne6to8.rou.xml"/>
        <additional-files value="TAPASCologne-0.24.0/vtypes.add.xml,TAPASCologne-0.24.0/cologne.poly.xml"/>
    </input>

    <output>
        <netstate-dump.precision value="1"/>
        <fcd-output value="cologne"/>
    </output>

    <time>
        <begin value="21600"/>
        <end value="21700"/>
        <step-length value="5"/>
    </time>

    <processing>
        <scale value="0.3"/>
    </processing>

    <report>
        <verbose value="true"/>
        <no-warnings value="true"/>
        <log value="TAPASCologne-0.24.0/cologne.log"/>
    </report>

    <random_number>
        <seed value="42"/>
    </random_number>

</configuration>
-->

<fcd-export xmlns:xsi="http://www.w3.org/2001/XMLSchema-instance" xsi:noNamespaceSchemaLocation="http://sumo.dlr.de/xsd/fcd_file.xsd">
    <timestep time="21600.00">
        <vehicle id="33598_33598_351_0" x="11352.92" y="13106.73" angle="44.02" type="pkw" speed="0.00" pos="4.60" lane="130147381_0" slope="0.00"/>
        <vehicle id="34652_34652_352_0" x="20464.45" y="14788.90" angle="151.75" type="pkw" speed="0.00" pos="4.60" lane="145680561#0_0" slope="0.00"/>
        <vehicle id="38648_38648_359_0" x="14687.63" y="18624.28" angle="171.10" type="pkw" speed="0.00" pos="4.60" lane="51793889_0" slope="0.00"/>
        <vehicle id="41690_41690_361_0" x="16616.31" y="8525.52" angle="323.84" type="pkw" speed="0.00" pos="4.60" lane="29337995#1_0" slope="0.00"/>
        <vehicle id="47094_47094_364_0" x="14025.20" y="14898.04" angle="341.77" type="pkw" speed="0.00" pos="4.60" lane="141241836#1_0" slope="0.00"/>
    </timestep>
    <timestep time="21605.00">
        <vehicle id="33539_33539_351_0" x="23581.27" y="14903.84" angle="266.26" type="pkw" speed="0.00" pos="4.60" lane="4395102#0_0" slope="0.00"/>
        <vehicle id="33598_33598_351_0" x="11370.24" y="13124.65" angle="44.02" type="pkw" speed="5.36" pos="31.40" lane="130147381_0" slope="0.00"/>
        <vehicle id="33911_33911_351_0" x="23621.84" y="15159.44" angle="292.64" type="pkw" speed="0.00" pos="4.60" lane="146515650_0" slope="0.00"/>
        <vehicle id="33970_33970_351_0" x="23914.80" y="4418.02" angle="250.06" type="pkw" speed="0.00" pos="4.60" lane="147175730#0_0" slope="0.00"/>
        <vehicle id="34364_34364_352_0" x="20210.74" y="13080.66" angle="269.85" type="pkw" speed="0.00" pos="4.60" lane="132540071#0_0" slope="0.00"/>
        <vehicle id="34652_34652_352_0" x="20468.47" y="14781.72" angle="150.78" type="pkw" speed="1.72" pos="13.20" lane="145680561#0_0" slope="0.00"/>
        <vehicle id="35520_35520_354_0" x="21860.01" y="19243.55" angle="255.68" type="pkw" speed="0.00" pos="4.60" lane="4728927#0_0" slope="0.00"/>
        <vehicle id="36082_36082_355_0" x="22842.43" y="11525.40" angle="21.24" type="pkw" speed="0.00" pos="4.60" lane="25789351_0" slope="0.00"/>
        <vehicle id="36357_36357_356_0" x="17292.72" y="18615.65" angle="339.99" type="pkw" speed="0.00" pos="4.60" lane="45492075_0" slope="0.00"/>
        <vehicle id="36520_36520_356_0" x="22619.44" y="12460.57" angle="63.60" type="pkw" speed="0.00" pos="4.60" lane="146876502#2_0" slope="0.00"/>
        <vehicle id="37041_37041_357_0" x="7040.35" y="21334.26" angle="115.75" type="pkw" speed="0.00" pos="4.60" lane="24680637#3_0" slope="0.00"/>
        <vehicle id="38648_38648_359_0" x="14689.74" y="18610.77" angle="171.10" type="pkw" speed="3.00" pos="19.60" lane="51793889_0" slope="0.00"/>
        <vehicle id="38848_38848_359_0" x="10728.91" y="12874.44" angle="61.91" type="pkw" speed="0.00" pos="4.60" lane="31864813#0_0" slope="0.00"/>
        <vehicle id="38935_38935_359_0" x="21217.50" y="9298.53" angle="1.80" type="pkw" speed="0.00" pos="4.60" lane="25298808#0_0" slope="0.00"/>
        <vehicle id="38949_38949_359_0" x="9866.67" y="17185.75" angle="235.97" type="pkw" speed="0.00" pos="4.60" lane="20685024#2_0" slope="0.00"/>
        <vehicle id="39162_39162_360_0" x="23702.69" y="5501.85" angle="178.44" type="pkw" speed="0.00" pos="4.60" lane="-28100395_0" slope="0.00"/>
        <vehicle id="39331_39331_360_0" x="12647.49" y="9250.89" angle="104.57" type="pkw" speed="0.00" pos="4.60" lane="86121590#0_0" slope="0.00"/>
        <vehicle id="39779_39779_360_0" x="23458.33" y="11379.95" angle="16.67" type="pkw" speed="0.00" pos="4.60" lane="25784714_0" slope="0.00"/>
        <vehicle id="41092_41092_361_0" x="20094.64" y="6114.84" angle="24.87" type="pkw" speed="0.00" pos="4.60" lane="249467317#1_0" slope="0.00"/>
        <vehicle id="41234_41234_361_0" x="18561.74" y="7272.86" angle="131.47" type="pkw" speed="0.00" pos="4.60" lane="9250707#0_0" slope="0.00"/>
        <vehicle id="41271_41271_361_0" x="10272.14" y="23797.72" angle="286.81" type="pkw" speed="0.00" pos="4.60" lane="24543754#3_0" slope="0.00"/>
        <vehicle id="41413_41413_361_0" x="20852.56" y="8027.02" angle="273.04" type="pkw" speed="0.00" pos="4.60" lane="331328087#0_0" slope="0.00"/>
        <vehicle id="41690_41690_361_0" x="16582.75" y="8571.44" angle="323.84" type="pkw" speed="11.81" pos="63.64" lane="29337995#1_0" slope="0.00"/>
        <vehicle id="42415_42415_361_0" x="21512.93" y="9290.83" angle="263.18" type="pkw" speed="0.00" pos="4.60" lane="132618681#0_0" slope="0.00"/>
        <vehicle id="42440_42440_361_0" x="12527.22" y="17464.33" angle="101.98" type="pkw" speed="0.00" pos="4.60" lane="20789349#2_0" slope="0.00"/>
        <vehicle id="45161_45161_362_0" x="14110.56" y="16625.53" angle="271.98" type="pkw" speed="0.00" pos="4.60" lane="155428550#0_0" slope="0.00"/>
        <vehicle id="45379_45379_362_0" x="10277.00" y="18638.11" angle="2.39" type="pkw" speed="0.00" pos="4.60" lane="321377709#0_0" slope="0.00"/>
        <vehicle id="46069_46069_363_0" x="22962.14" y="5467.90" angle="358.35" type="pkw" speed="0.00" pos="4.60" lane="27893991#0_0" slope="0.00"/>
        <vehicle id="46449_46449_363_0" x="12131.82" y="12777.20" angle="47.02" type="pkw" speed="0.00" pos="4.60" lane="144615436#1_0" slope="0.00"/>
        <vehicle id="46759_46759_363_0" x="11851.55" y="16409.80" angle="54.84" type="pkw" speed="0.00" pos="4.60" lane="313588009#0_0" slope="0.00"/>
        <vehicle id="47094_47094_364_0" x="14022.70" y="14922.29" angle="3.18" type="pkw" speed="7.82" pos="43.71" lane="141241836#1_0" slope="0.00"/>
        <vehicle id="47143_47143_364_0" x="18466.19" y="10056.46" angle="307.34" type="pkw" speed="0.00" pos="4.60" lane="363389287#8_0" slope="0.00"/>
        <vehicle id="47473_47473_364_0" x="17087.96" y="19300.53" angle="178.96" type="pkw" speed="0.00" pos="4.60" lane="146235963_0" slope="0.00"/>
        <vehicle id="47607_47607_365_0" x="14467.24" y="11119.55" angle="163.45" type="pkw" speed="0.00" pos="4.60" lane="25445056#0_0" slope="0.00"/>
        <vehicle id="47632_47632_365_0" x="16846.50" y="16548.14" angle="80.11" type="pkw" speed="0.00" pos="4.60" lane="10358660#0_0" slope="0.00"/>
        <vehicle id="48279_48279_365_0" x="20102.31" y="12401.31" angle="244.89" type="pkw" speed="0.00" pos="4.60" lane="132614566#0_0" slope="0.00"/>
        <vehicle id="49029_49029_366_0" x="10400.17" y="18062.92" angle="356.62" type="pkw" speed="0.00" pos="4.60" lane="166054718#5_0" slope="0.00"/>
        <vehicle id="49457_49457_367_0" x="14215.75" y="23804.35" angle="244.61" type="pkw" speed="0.00" pos="4.60" lane="-230569303#0_0" slope="0.00"/>
        <vehicle id="50166_50166_368_0" x="17038.26" y="3656.81" angle="15.37" type="pkw" speed="0.00" pos="4.60" lane="26661693#0_0" slope="0.00"/>
        <vehicle id="50313_50313_368_0" x="9662.74" y="24760.78" angle="60.78" type="pkw" speed="0.00" pos="4.60" lane="347019888#2_0" slope="0.00"/>
        <vehicle id="50525_50525_368_0" x="20717.63" y="6551.01" angle="189.26" type="pkw" speed="0.00" pos="4.60" lane="255727981_0" slope="0.00"/>
        <vehicle id="51669_51669_370_0" x="19747.99" y="12967.50" angle="100.74" type="pkw" speed="0.00" pos="4.60" lane="132545224#2_0" slope="0.00"/>
        <vehicle id="52122_52122_370_0" x="23336.58" y="16925.05" angle="274.55" type="pkw" speed="0.00" pos="4.60" lane="156333186#11_0" slope="0.00"/>
        <vehicle id="52310_52310_370_0" x="9524.91" y="25667.55" angle="93.35" type="pkw" speed="0.00" pos="4.60" lane="24703286#0_0" slope="0.00"/>
        <vehicle id="52471_52471_370_0" x="13444.72" y="20901.52" angle="185.76" type="pkw" speed="0.00" pos="4.60" lane="49434932_0" slope="0.00"/>
        <vehicle id="52628_52628_370_0" x="13485.90" y="9984.27" angle="184.47" type="pkw" speed="0.00" pos="4.60" lane="27359993_0" slope="0.00"/>
    </timestep>
    <timestep time="21610.00">
        <vehicle id="33539_33539_351_0" x="23523.32" y="14895.35" angle="264.54" type="pkw" speed="11.99" pos="64.53" lane="4395102#0_1" slope="0.00"/>
        <vehicle id="33598_33598_351_0" x="11388.48" y="13143.39" angle="45.22" type="pkw" speed="5.63" pos="59.53" lane="130147381_0" slope="0.00"/>
        <vehicle id="33911_33911_351_0" x="23564.95" y="15183.17" angle="292.64" type="pkw" speed="12.62" pos="67.71" lane="146515650_0" slope="0.00"/>
        <vehicle id="33970_33970_351_0" x="23886.74" y="4407.84" angle="250.06" type="pkw" speed="6.29" pos="36.06" lane="147175730#0_0" slope="0.00"/>
        <vehicle id="34246_34246_352_0" x="16502.46" y="6473.64" angle="201.31" type="pkw" speed="0.00" pos="4.60" lane="25607274#1_0" slope="0.00"/>
        <vehicle id="34364_34364_352_0" x="20190.26" y="13080.60" angle="269.85" type="pkw" speed="4.21" pos="25.65" lane="132540071#0_0" slope="0.00"/>
        <vehicle id="34652_34652_352_0" x="20482.03" y="14751.31" angle="159.30" type="pkw" speed="6.97" pos="48.05" lane="145680561#0_0" slope="0.00"/>
        <vehicle id="34713_34713_352_0" x="9978.31" y="23266.03" angle="18.10" type="pkw" speed="0.00" pos="4.60" lane="33704075#4_0" slope="0.00"/>
        <vehicle id="34956_34956_353_0" x="13662.43" y="6261.40" angle="353.56" type="pkw" speed="0.00" pos="4.60" lane="25320986#0_0" slope="0.00"/>
        <vehicle id="35520_35520_354_0" x="21826.14" y="19231.14" angle="249.43" type="pkw" speed="7.94" pos="44.29" lane="4728927#0_0" slope="0.00"/>
        <vehicle id="36025_36025_355_0" x="5027.08" y="14719.27" angle="144.41" type="pkw" speed="0.00" pos="4.60" lane="26686083#1_0" slope="0.00"/>
        <vehicle id="36082_36082_355_0" x="22847.54" y="11552.23" angle="357.51" type="pkw" speed="6.12" pos="35.20" lane="25789351_0" slope="0.00"/>
        <vehicle id="36357_36357_356_0" x="17277.42" y="18657.67" angle="339.99" type="pkw" speed="9.12" pos="50.20" lane="45492075_0" slope="0.00"/>
        <vehicle id="36520_36520_356_0" x="22648.20" y="12473.16" angle="359.70" type="pkw" speed="8.58" pos="1.81" lane="-146876502#2_0" slope="0.00"/>
        <vehicle id="37041_37041_357_0" x="7098.17" y="21306.36" angle="115.75" type="pkw" speed="12.95" pos="69.37" lane="24680637#3_0" slope="0.00"/>
        <vehicle id="37962_37962_358_0" x="18637.55" y="16704.60" angle="314.23" type="pkw" speed="0.00" pos="4.60" lane="27339348#5_0" slope="0.00"/>
        <vehicle id="38529_38529_359_0" x="11418.64" y="11369.79" angle="222.41" type="pkw" speed="0.00" pos="4.60" lane="24326593#0_0" slope="0.00"/>
        <vehicle id="38648_38648_359_0" x="14692.23" y="18594.89" angle="171.10" type="pkw" speed="3.53" pos="37.23" lane="51793889_0" slope="0.00"/>
        <vehicle id="38848_38848_359_0" x="10740.48" y="12880.61" angle="61.91" type="pkw" speed="2.77" pos="18.45" lane="31864813#0_0" slope="0.00"/>
        <vehicle id="38935_38935_359_0" x="21218.76" y="9356.40" angle="354.72" type="pkw" speed="11.79" pos="63.55" lane="25298808#0_0" slope="0.00"/>
        <vehicle id="38949_38949_359_0" x="9824.72" y="17157.41" angle="235.97" type="pkw" speed="11.02" pos="59.71" lane="20685024#2_0" slope="0.00"/>
        <vehicle id="39162_39162_360_0" x="23703.82" y="5460.37" angle="178.44" type="pkw" speed="8.71" pos="48.13" lane="-28100395_0" slope="0.00"/>
        <vehicle id="39331_39331_360_0" x="12685.41" y="9241.03" angle="104.57" type="pkw" speed="7.93" pos="44.26" lane="86121590#0_0" slope="0.00"/>
        <vehicle id="39342_39342_360_0" x="22414.55" y="8728.35" angle="158.27" type="pkw" speed="0.00" pos="4.60" lane="132622435#0_0" slope="0.00"/>
        <vehicle id="39571_39571_360_0" x="14336.68" y="9556.20" angle="263.74" type="pkw" speed="0.00" pos="4.60" lane="142766509#6_0" slope="0.00"/>
        <vehicle id="39779_39779_360_0" x="23465.16" y="11402.78" angle="16.67" type="pkw" speed="5.20" pos="30.59" lane="25784714_0" slope="0.00"/>
        <vehicle id="39985_39985_360_0" x="12872.42" y="11047.59" angle="99.73" type="pkw" speed="0.00" pos="4.60" lane="-32390175#2_0" slope="0.00"/>
        <vehicle id="40339_40339_360_0" x="20210.74" y="13080.66" angle="269.85" type="pkw" speed="0.00" pos="4.60" lane="132540071#0_0" slope="0.00"/>
        <vehicle id="41092_41092_361_0" x="20117.43" y="6163.35" angle="25.62" type="pkw" speed="11.46" pos="61.88" lane="249467317#1_0" slope="0.00"/>
        <vehicle id="41234_41234_361_0" x="18587.85" y="7249.79" angle="131.47" type="pkw" speed="7.62" pos="42.68" lane="9250707#0_0" slope="0.00"/>
        <vehicle id="41271_41271_361_0" x="10227.59" y="23811.19" angle="286.84" type="pkw" speed="9.59" pos="52.55" lane="24543754#3_0" slope="0.00"/>
        <vehicle id="41413_41413_361_0" x="20806.64" y="8029.45" angle="273.04" type="pkw" speed="11.49" pos="62.03" lane="331328087#0_0" slope="0.00"/>
        <vehicle id="41690_41690_361_0" x="16551.14" y="8614.70" angle="323.84" type="pkw" speed="11.12" pos="119.25" lane="29337995#1_0" slope="0.00"/>
        <vehicle id="42415_42415_361_0" x="21504.81" y="9289.86" angle="263.21" type="pkw" speed="1.74" pos="13.30" lane="132618681#0_0" slope="0.00"/>
        <vehicle id="42420_42420_361_0" x="10123.80" y="23722.98" angle="31.07" type="pkw" speed="0.00" pos="4.60" lane="258042902#1_0" slope="0.00"/>
        <vehicle id="42440_42440_361_0" x="12547.73" y="17458.88" angle="107.44" type="pkw" speed="5.05" pos="29.85" lane="20789349#2_0" slope="0.00"/>
        <vehicle id="43169_43169_362_0" x="8502.04" y="16270.57" angle="131.12" type="pkw" speed="0.00" pos="4.60" lane="20442527#8_0" slope="0.00"/>
        <vehicle id="43840_43840_362_0" x="8365.27" y="21468.41" angle="137.25" type="pkw" speed="0.00" pos="4.60" lane="160637978#2_0" slope="0.00"/>
        <vehicle id="43995_43995_362_0" x="10463.01" y="12955.63" angle="57.88" type="pkw" speed="0.00" pos="4.60" lane="31864804_0" slope="0.00"/>
        <vehicle id="44119_44119_362_0" x="19978.40" y="17785.49" angle="186.16" type="pkw" speed="0.00" pos="4.60" lane="26186585#1_0" slope="0.00"/>
        <vehicle id="45083_45083_362_0" x="18558.15" y="11958.20" angle="191.80" type="pkw" speed="0.00" pos="4.60" lane="159556200#1_0" slope="0.00"/>
        <vehicle id="45161_45161_362_0" x="14103.11" y="16625.78" angle="271.98" type="pkw" speed="1.63" pos="12.76" lane="155428550#0_0" slope="0.00"/>
        <vehicle id="45379_45379_362_0" x="10269.69" y="18689.40" angle="345.21" type="pkw" speed="10.62" pos="57.69" lane="321377709#0_0" slope="0.00"/>
        <vehicle id="45425_45425_362_0" x="8453.37" y="22101.46" angle="141.22" type="pkw" speed="0.00" pos="4.60" lane="48417163_0" slope="0.00"/>
        <vehicle id="45475_45475_363_0" x="23335.42" y="11285.57" angle="98.73" type="pkw" speed="0.00" pos="4.60" lane="207510935#0_0" slope="0.00"/>
        <vehicle id="45586_45586_363_0" x="13005.11" y="18090.34" angle="291.52" type="pkw" speed="0.00" pos="4.60" lane="22902717_0" slope="0.00"/>
        <vehicle id="46069_46069_363_0" x="22960.62" y="5521.15" angle="358.36" type="pkw" speed="11.10" pos="60.11" lane="27893991#0_0" slope="0.00"/>
        <vehicle id="46449_46449_363_0" x="12171.26" y="12816.81" angle="45.93" type="pkw" speed="11.62" pos="62.70" lane="144615436#1_0" slope="0.00"/>
        <vehicle id="46673_46673_363_0" x="4976.53" y="14215.89" angle="273.05" type="pkw" speed="0.00" pos="4.60" lane="24665830_0" slope="0.00"/>
        <vehicle id="46759_46759_363_0" x="11894.94" y="16444.23" angle="53.69" type="pkw" speed="11.40" pos="14.94" lane="313588008_1" slope="0.00"/>
        <vehicle id="47094_47094_364_0" x="14024.08" y="14964.83" angle="353.84" type="pkw" speed="10.00" pos="2.80" lane="6187383#2_1" slope="0.00"/>
        <vehicle id="47143_47143_364_0" x="18429.09" y="10088.90" angle="311.63" type="pkw" speed="10.10" pos="55.11" lane="363389287#8_0" slope="0.00"/>
        <vehicle id="47473_47473_364_0" x="17089.18" y="19251.26" angle="178.52" type="pkw" speed="10.01" pos="54.67" lane="146235963_0" slope="0.00"/>
        <vehicle id="47525_47525_365_0" x="22431.40" y="7293.98" angle="340.10" type="pkw" speed="0.00" pos="4.60" lane="19751894#0_0" slope="0.00"/>
        <vehicle id="47607_47607_365_0" x="14476.83" y="11087.27" angle="163.45" type="pkw" speed="7.13" pos="40.25" lane="25445056#0_0" slope="0.00"/>
        <vehicle id="47632_47632_365_0" x="16875.78" y="16553.24" angle="80.11" type="pkw" speed="6.70" pos="38.08" lane="10358660#0_0" slope="0.00"/>
        <vehicle id="47782_47782_365_0" x="5783.42" y="14795.90" angle="308.32" type="pkw" speed="0.00" pos="4.60" lane="256228547#0_0" slope="0.00"/>
        <vehicle id="48279_48279_365_0" x="20069.18" y="12386.68" angle="246.17" type="pkw" speed="7.59" pos="42.55" lane="132614566#0_0" slope="0.00"/>
        <vehicle id="49029_49029_366_0" x="10397.65" y="18105.53" angle="356.62" type="pkw" speed="8.99" pos="49.53" lane="166054718#5_0" slope="0.00"/>
        <vehicle id="49457_49457_367_0" x="14161.89" y="23778.80" angle="244.61" type="pkw" speed="12.87" pos="68.93" lane="-230569303#0_0" slope="0.00"/>
        <vehicle id="50161_50161_368_0" x="13571.87" y="6301.44" angle="298.89" type="pkw" speed="0.00" pos="4.60" lane="25341850#1_0" slope="0.00"/>
        <vehicle id="50166_50166_368_0" x="17051.78" y="3704.14" angle="17.42" type="pkw" speed="10.44" pos="56.80" lane="26661693#0_0" slope="0.00"/>
        <vehicle id="50313_50313_368_0" x="9662.74" y="24760.78" angle="60.78" type="pkw" speed="0.00" pos="4.60" lane="347019888#2_0" slope="0.00"/>
        <vehicle id="50525_50525_368_0" x="20710.05" y="6504.54" angle="189.26" type="pkw" speed="9.59" pos="52.54" lane="255727981_0" slope="0.00"/>
        <vehicle id="51387_51387_369_0" x="17087.96" y="19300.53" angle="178.96" type="pkw" speed="0.00" pos="4.60" lane="146235963_0" slope="0.00"/>
        <vehicle id="51669_51669_370_0" x="19776.12" y="12965.32" angle="101.31" type="pkw" speed="6.72" pos="38.20" lane="132545224#2_1" slope="0.00"/>
        <vehicle id="51828_51828_370_0" x="23581.27" y="14903.84" angle="266.26" type="pkw" speed="0.00" pos="4.60" lane="4395102#0_0" slope="0.00"/>
        <vehicle id="51852_51852_370_0" x="7629.53" y="18817.06" angle="271.12" type="pkw" speed="0.00" pos="4.60" lane="28577745#0_0" slope="0.00"/>
        <vehicle id="52122_52122_370_0" x="23284.74" y="16929.19" angle="274.36" type="pkw" speed="11.81" pos="63.64" lane="156333186#11_0" slope="0.00"/>
        <vehicle id="52310_52310_370_0" x="9559.87" y="25667.06" angle="71.41" type="pkw" speed="7.19" pos="40.54" lane="24703286#0_0" slope="0.00"/>
        <vehicle id="52413_52413_370_0" x="12692.45" y="20461.65" angle="220.75" type="pkw" speed="0.00" pos="4.60" lane="25539517#0_0" slope="0.00"/>
        <vehicle id="52471_52471_370_0" x="13443.67" y="20858.27" angle="185.76" type="pkw" speed="8.73" pos="48.24" lane="49434932_1" slope="0.00"/>
        <vehicle id="52628_52628_370_0" x="13485.22" y="9975.50" angle="184.47" type="pkw" speed="1.88" pos="14.01" lane="27359993_0" slope="0.00"/>
    </timestep>
    <timestep time="21615.00">
        <vehicle id="33539_33539_351_0" x="23464.59" y="14889.73" angle="264.54" type="pkw" speed="12.16" pos="125.32" lane="4395102#0_1" slope="0.00"/>
        <vehicle id="33598_33598_351_0" x="11393.92" y="13147.89" angle="50.40" type="pkw" speed="1.52" pos="67.13" lane="130147381_0" slope="0.00"/>
        <vehicle id="33911_33911_351_0" x="23454.21" y="15225.20" angle="285.52" type="pkw" speed="24.27" pos="189.05" lane="146515650_0" slope="0.00"/>
        <vehicle id="33970_33970_351_0" x="23857.91" y="4394.71" angle="244.73" type="pkw" speed="6.68" pos="69.45" lane="147175730#0_0" slope="0.00"/>
        <vehicle id="34003_34003_351_0" x="11828.07" y="16846.28" angle="327.88" type="pkw" speed="0.00" pos="4.60" lane="278328109_0" slope="0.00"/>
        <vehicle id="34042_34042_352_0" x="12854.35" y="12307.86" angle="313.60" type="pkw" speed="0.00" pos="4.60" lane="4121462_0" slope="0.00"/>
        <vehicle id="34246_34246_352_0" x="16483.98" y="6426.30" angle="201.31" type="pkw" speed="11.37" pos="61.44" lane="25607274#1_0" slope="0.00"/>
        <vehicle id="34295_34295_352_0" x="7256.38" y="18991.26" angle="173.77" type="pkw" speed="0.00" pos="4.60" lane="22690851#4_0" slope="0.00"/>
        <vehicle id="34364_34364_352_0" x="20154.27" y="13080.51" angle="269.85" type="pkw" speed="7.40" pos="62.66" lane="132540071#0_0" slope="0.00"/>
        <vehicle id="34652_34652_352_0" x="20487.67" y="14731.83" angle="164.95" type="pkw" speed="4.24" pos="69.24" lane="145680561#0_0" slope="0.00"/>
        <vehicle id="34690_34690_352_0" x="7354.28" y="28076.74" angle="346.10" type="pkw" speed="0.00" pos="4.60" lane="24608969_0" slope="0.00"/>
        <vehicle id="34713_34713_352_0" x="9952.69" y="23264.56" angle="186.03" type="pkw" speed="9.49" pos="4.22" lane="33704075#0_0" slope="0.00"/>
        <vehicle id="34945_34945_353_0" x="17765.83" y="15914.96" angle="148.96" type="pkw" speed="0.00" pos="4.60" lane="36593471#3_0" slope="0.00"/>
        <vehicle id="34956_34956_353_0" x="13654.66" y="6301.46" angle="343.95" type="pkw" speed="9.29" pos="51.06" lane="25320986#0_0" slope="0.00"/>
        <vehicle id="35180_35180_353_0" x="5688.94" y="14449.16" angle="133.19" type="pkw" speed="0.00" pos="4.60" lane="83652875_0" slope="0.00"/>
        <vehicle id="35394_35394_354_0" x="21489.92" y="15210.48" angle="104.72" type="pkw" speed="0.00" pos="4.60" lane="132624433_0" slope="0.00"/>
        <vehicle id="35520_35520_354_0" x="21813.15" y="19226.26" angle="249.43" type="pkw" speed="3.05" pos="59.55" lane="4728927#0_0" slope="0.00"/>
        <vehicle id="36025_36025_355_0" x="5055.82" y="14679.11" angle="144.41" type="pkw" speed="10.42" pos="56.70" lane="26686083#1_0" slope="0.00"/>
        <vehicle id="36082_36082_355_0" x="22846.37" y="11579.18" angle="357.51" type="pkw" speed="5.96" pos="64.98" lane="25789351_0" slope="0.00"/>
        <vehicle id="36357_36357_356_0" x="17247.17" y="18739.00" angle="338.76" type="pkw" speed="17.70" pos="138.69" lane="45492075_0" slope="0.00"/>
        <vehicle id="36520_36520_356_0" x="22626.20" y="12467.07" angle="248.59" type="pkw" speed="5.66" pos="30.10" lane="-146876502#2_0" slope="0.00"/>
        <vehicle id="36616_36616_356_0" x="14487.27" y="18636.72" angle="7.41" type="pkw" speed="0.00" pos="4.60" lane="32609994_0" slope="0.00"/>
        <vehicle id="37041_37041_357_0" x="7153.20" y="21280.48" angle="114.50" type="pkw" speed="12.27" pos="130.72" lane="24680637#3_0" slope="0.00"/>
        <vehicle id="37962_37962_358_0" x="18612.40" y="16731.10" angle="319.09" type="pkw" speed="8.14" pos="45.31" lane="27339348#5_0" slope="0.00"/>
        <vehicle id="38529_38529_359_0" x="11398.00" y="11347.19" angle="222.41" type="pkw" speed="6.38" pos="36.49" lane="24326593#0_0" slope="0.00"/>
        <vehicle id="38648_38648_359_0" x="14695.94" y="18571.24" angle="171.10" type="pkw" speed="5.25" pos="63.49" lane="51793889_0" slope="0.00"/>
        <vehicle id="38848_38848_359_0" x="10763.06" y="12892.67" angle="61.91" type="pkw" speed="5.41" pos="45.50" lane="31864813#0_0" slope="0.00"/>
        <vehicle id="38935_38935_359_0" x="21190.51" y="9399.14" angle="303.28" type="pkw" speed="10.76" pos="117.32" lane="25298808#0_0" slope="0.00"/>
        <vehicle id="38949_38949_359_0" x="9768.99" y="17111.42" angle="227.86" type="pkw" speed="14.56" pos="56.21" lane="20685024#3_0" slope="0.00"/>
        <vehicle id="39162_39162_360_0" x="23704.99" y="5417.63" angle="178.44" type="pkw" speed="8.97" pos="92.98" lane="-28100395_0" slope="0.00"/>
        <vehicle id="39171_39171_360_0" x="9152.23" y="24866.47" angle="116.94" type="pkw" speed="0.00" pos="4.60" lane="24703294#5_0" slope="0.00"/>
        <vehicle id="39331_39331_360_0" x="12767.77" y="9225.66" angle="98.37" type="pkw" speed="16.98" pos="129.17" lane="86121590#0_0" slope="0.00"/>
        <vehicle id="39342_39342_360_0" x="22424.87" y="8702.45" angle="158.27" type="pkw" speed="5.87" pos="33.93" lane="132622435#0_0" slope="0.00"/>
        <vehicle id="39571_39571_360_0" x="14302.24" y="9552.42" angle="263.76" type="pkw" speed="7.18" pos="40.52" lane="142766509#6_0" slope="0.00"/>
        <vehicle id="39621_39621_360_0" x="21475.53" y="14418.69" angle="52.11" type="pkw" speed="0.00" pos="4.60" lane="145733701#0_0" slope="0.00"/>
        <vehicle id="39779_39779_360_0" x="23474.57" y="11434.17" angle="16.67" type="pkw" speed="7.15" pos="66.33" lane="25784714_0" slope="0.00"/>
        <vehicle id="39985_39985_360_0" x="12901.57" y="11042.59" angle="99.73" type="pkw" speed="6.52" pos="37.19" lane="-32390175#2_0" slope="0.00"/>
        <vehicle id="40339_40339_360_0" x="20210.74" y="13080.66" angle="269.85" type="pkw" speed="0.00" pos="4.60" lane="132540071#0_0" slope="0.00"/>
        <vehicle id="40593_40593_360_0" x="15511.11" y="21087.74" angle="82.24" type="pkw" speed="0.00" pos="4.60" lane="30714271_0" slope="0.00"/>
        <vehicle id="41009_41009_361_0" x="21747.83" y="17341.86" angle="1.28" type="pkw" speed="0.00" pos="4.60" lane="310367467#0_0" slope="0.00"/>
        <vehicle id="41092_41092_361_0" x="20141.06" y="6212.63" angle="25.62" type="pkw" speed="11.68" pos="120.30" lane="249467317#1_0" slope="0.00"/>
        <vehicle id="41234_41234_361_0" x="18614.19" y="7226.52" angle="131.47" type="pkw" speed="7.68" pos="81.09" lane="9250707#0_0" slope="0.00"/>
        <vehicle id="41271_41271_361_0" x="10182.05" y="23824.97" angle="286.84" type="pkw" speed="9.80" pos="101.55" lane="24543754#3_0" slope="0.00"/>
        <vehicle id="41413_41413_361_0" x="20748.90" y="8067.65" angle="4.30" type="pkw" speed="15.17" pos="16.55" lane="321388520#0_0" slope="0.00"/>
        <vehicle id="41429_41429_361_0" x="9026.69" y="20538.38" angle="246.04" type="pkw" speed="0.00" pos="4.60" lane="26261427_0" slope="0.00"/>
        <vehicle id="41690_41690_361_0" x="16521.70" y="8655.64" angle="325.62" type="pkw" speed="10.47" pos="171.60" lane="29337995#1_0" slope="0.00"/>
        <vehicle id="42415_42415_361_0" x="21481.57" y="9287.09" angle="263.21" type="pkw" speed="4.98" pos="38.20" lane="132618681#0_0" slope="0.00"/>
        <vehicle id="42420_42420_361_0" x="10101.58" y="23697.87" angle="215.28" type="pkw" speed="10.89" pos="21.95" lane="-258042902#0_0" slope="0.00"/>
        <vehicle id="42440_42440_361_0" x="12567.17" y="17456.23" angle="287.40" type="pkw" speed="7.90" pos="8.54" lane="-20789349#3_0" slope="0.00"/>
        <vehicle id="42559_42559_361_0" x="23591.00" y="14894.22" angle="90.61" type="pkw" speed="0.00" pos="4.60" lane="146515699_0" slope="0.00"/>
        <vehicle id="43169_43169_362_0" x="8514.74" y="16259.48" angle="131.12" type="pkw" speed="3.71" pos="23.16" lane="20442527#8_0" slope="0.00"/>
        <vehicle id="43840_43840_362_0" x="8394.37" y="21436.93" angle="137.25" type="pkw" speed="10.51" pos="57.17" lane="160637978#2_0" slope="0.00"/>
        <vehicle id="43901_43901_362_0" x="8689.11" y="21455.74" angle="156.68" type="pkw" speed="0.00" pos="4.60" lane="65492932#0_0" slope="0.00"/>
        <vehicle id="43995_43995_362_0" x="10500.24" y="12982.88" angle="57.90" type="pkw" speed="10.30" pos="56.09" lane="31864804_1" slope="0.00"/>
        <vehicle id="44119_44119_362_0" x="19975.59" y="17759.46" angle="186.16" type="pkw" speed="5.46" pos="31.90" lane="26186585#1_0" slope="0.00"/>
        <vehicle id="44311_44311_362_0" x="16546.77" y="13379.75" angle="184.48" type="pkw" speed="0.00" pos="4.60" lane="129382214#3_0" slope="0.00"/>
        <vehicle id="45083_45083_362_0" x="18548.80" y="11913.46" angle="191.80" type="pkw" speed="9.66" pos="52.89" lane="159556200#1_0" slope="0.00"/>
        <vehicle id="45161_45161_362_0" x="14084.31" y="16626.43" angle="271.98" type="pkw" speed="4.12" pos="33.33" lane="155428550#0_0" slope="0.00"/>
        <vehicle id="45312_45312_362_0" x="15109.21" y="14520.52" angle="359.18" type="pkw" speed="0.00" pos="4.60" lane="27002524_0" slope="0.00"/>
        <vehicle id="45379_45379_362_0" x="10251.67" y="18757.47" angle="345.15" type="pkw" speed="14.36" pos="129.48" lane="321377709#0_0" slope="0.00"/>
        <vehicle id="45425_45425_362_0" x="8481.17" y="22066.85" angle="141.22" type="pkw" speed="8.98" pos="49.50" lane="48417163_0" slope="0.00"/>
        <vehicle id="45475_45475_363_0" x="23374.37" y="11279.59" angle="98.73" type="pkw" speed="8.27" pos="45.96" lane="207510935#0_0" slope="0.00"/>
        <vehicle id="45586_45586_363_0" x="13005.11" y="18090.34" angle="291.52" type="pkw" speed="0.00" pos="4.60" lane="22902717_0" slope="0.00"/>
        <vehicle id="46069_46069_363_0" x="22959.28" y="5567.96" angle="358.36" type="pkw" speed="9.76" pos="108.89" lane="27893991#0_0" slope="0.00"/>
        <vehicle id="46449_46449_363_0" x="12206.29" y="12850.25" angle="46.49" type="pkw" speed="10.06" pos="113.01" lane="144615436#1_0" slope="0.00"/>